calculator: qe
length_unit: au
nqpoint: 102    
npath: 2      
segment_nqpoint:
- 51
- 51
reciprocal_lattice:
- [   0.00000000,   0.11457182,   0.04798119 ] # a*
- [   0.09923935,  -0.05722865,  -0.02394450 ] # b*
- [   0.00000000,   0.00000000,  -0.07206291 ] # c*
natom: 12     
lattice:
- [     5.033288152314657,     8.728149542234707,     0.000000000000000 ] # a
- [    10.076648471008609,     0.000000000000000,     0.000000000000000 ] # b
- [     0.003092973533652,     5.811409103143821,   -13.876764382051201 ] # c
points:
- symbol: Ca # 1
  coordinates: [  0.541675567626953,  0.696480095386505,  0.854565799236298 ]
  mass: 40.078000
- symbol: O # 2
  coordinates: [  0.741462647914886,  0.806160271167755,  0.057227909564972 ]
  mass: 15.999400
- symbol: Mg # 3
  coordinates: [  0.056149184703827,  0.439255326986313,  0.083121955394745 ]
  mass: 24.305000
- symbol: Si # 4
  coordinates: [  0.691468358039856,  0.121506735682487,  0.130127668380737 ]
  mass: 28.085500
- symbol: Si # 5
  coordinates: [  0.391373097896576,  0.271087646484375,  0.577975869178772 ]
  mass: 28.085500
- symbol: O # 6
  coordinates: [  0.341613203287125,  0.005558960605413,  0.651733428239822 ]
  mass: 15.999400
- symbol: Mg # 7
  coordinates: [  0.026951640844345,  0.953310132026672,  0.625451833009720 ]
  mass: 24.305000
- symbol: O # 8
  coordinates: [  0.052784115076065,  0.586789786815643,  0.651770919561386 ]
  mass: 15.999400
- symbol: O # 9
  coordinates: [  0.541569769382477,  0.196611464023590,  0.354160010814667 ]
  mass: 15.999400
- symbol: O # 10
  coordinates: [  0.633310645818710,  0.293325036764145,  0.652160316705704 ]
  mass: 15.999400
- symbol: O # 11
  coordinates: [  0.449254930019379,  0.386275798082352,  0.056735277175903 ]
  mass: 15.999400
- symbol: O # 12
  coordinates: [  0.029707029461860,  0.099197477102280,  0.056826710700989 ]
  mass: 15.999400

phonon:
- q-position: [    0.5000000,    0.5000000,    0.5000000 ]
  distance:    0.0000000
  band:
  - # 1
    frequency:  -14.3067975096
  - # 2
    frequency:  -12.3140537604
  - # 3
    frequency:  -10.4661415880
  - # 4
    frequency:   -9.8721971089
  - # 5
    frequency:   -9.0978439426
  - # 6
    frequency:   -8.6242265948
  - # 7
    frequency:   -8.0149368704
  - # 8
    frequency:   -7.8962518133
  - # 9
    frequency:   -7.4096189022
  - # 10
    frequency:   -7.2479733470
  - # 11
    frequency:   -6.4372401309
  - # 12
    frequency:   -6.2929576055
  - # 13
    frequency:   -6.1507826035
  - # 14
    frequency:   -5.8733554918
  - # 15
    frequency:   -5.6913419371
  - # 16
    frequency:   -4.9248309934
  - # 17
    frequency:   -4.5717880399
  - # 18
    frequency:   -4.4536062905
  - # 19
    frequency:   -3.7103783573
  - # 20
    frequency:   -3.2163997935
  - # 21
    frequency:   -2.8444395118
  - # 22
    frequency:   -2.4271747805
  - # 23
    frequency:   -0.6740194020
  - # 24
    frequency:    1.6250483964
  - # 25
    frequency:    3.1459344849
  - # 26
    frequency:    4.1318145364
  - # 27
    frequency:    4.2576500906
  - # 28
    frequency:    4.4881569363
  - # 29
    frequency:    4.9245355438
  - # 30
    frequency:    5.7029191145
  - # 31
    frequency:    6.6069341151
  - # 32
    frequency:    6.7540066852
  - # 33
    frequency:    6.9727266643
  - # 34
    frequency:    8.2630618572
  - # 35
    frequency:   11.0612679470
  - # 36
    frequency:   11.3942498755

- q-position: [    0.4900000,    0.4900000,    0.4900000 ]
  distance:    0.0012427
  band:
  - # 1
    frequency:  -14.3008200276
  - # 2
    frequency:  -12.3109594280
  - # 3
    frequency:  -10.4696711004
  - # 4
    frequency:   -9.8724507922
  - # 5
    frequency:   -9.1000491683
  - # 6
    frequency:   -8.6245968043
  - # 7
    frequency:   -8.0249992952
  - # 8
    frequency:   -7.8953331485
  - # 9
    frequency:   -7.4148153099
  - # 10
    frequency:   -7.2560727694
  - # 11
    frequency:   -6.4395409178
  - # 12
    frequency:   -6.3049933288
  - # 13
    frequency:   -6.1441585785
  - # 14
    frequency:   -5.8778718936
  - # 15
    frequency:   -5.6840734768
  - # 16
    frequency:   -4.9256402250
  - # 17
    frequency:   -4.5706251822
  - # 18
    frequency:   -4.4534264674
  - # 19
    frequency:   -3.6888033357
  - # 20
    frequency:   -3.2174249351
  - # 21
    frequency:   -2.8497852184
  - # 22
    frequency:   -2.4003558869
  - # 23
    frequency:   -0.8597396387
  - # 24
    frequency:    1.7147670787
  - # 25
    frequency:    3.1380806812
  - # 26
    frequency:    4.1162606330
  - # 27
    frequency:    4.2631603383
  - # 28
    frequency:    4.4890518061
  - # 29
    frequency:    4.9530275236
  - # 30
    frequency:    5.7277584398
  - # 31
    frequency:    6.6125478130
  - # 32
    frequency:    6.7466882194
  - # 33
    frequency:    6.9833459866
  - # 34
    frequency:    8.2670485416
  - # 35
    frequency:   11.0592857356
  - # 36
    frequency:   11.3952186518

- q-position: [    0.4800000,    0.4800000,    0.4800000 ]
  distance:    0.0024854
  band:
  - # 1
    frequency:  -14.2829878847
  - # 2
    frequency:  -12.3017688163
  - # 3
    frequency:  -10.4802846583
  - # 4
    frequency:   -9.8731138766
  - # 5
    frequency:   -9.1065105088
  - # 6
    frequency:   -8.6262897107
  - # 7
    frequency:   -8.0536127206
  - # 8
    frequency:   -7.8945363797
  - # 9
    frequency:   -7.4296737433
  - # 10
    frequency:   -7.2792750605
  - # 11
    frequency:   -6.4454052575
  - # 12
    frequency:   -6.3394522396
  - # 13
    frequency:   -6.1240515140
  - # 14
    frequency:   -5.8939978948
  - # 15
    frequency:   -5.6631055430
  - # 16
    frequency:   -4.9267405171
  - # 17
    frequency:   -4.5738857502
  - # 18
    frequency:   -4.4459539484
  - # 19
    frequency:   -3.6295610471
  - # 20
    frequency:   -3.2211500366
  - # 21
    frequency:   -2.8610740090
  - # 22
    frequency:   -2.3314142362
  - # 23
    frequency:   -1.1283554975
  - # 24
    frequency:    1.8892140360
  - # 25
    frequency:    3.1136674258
  - # 26
    frequency:    4.0864663939
  - # 27
    frequency:    4.2694647391
  - # 28
    frequency:    4.5026369807
  - # 29
    frequency:    5.0259909158
  - # 30
    frequency:    5.7983769012
  - # 31
    frequency:    6.6287693831
  - # 32
    frequency:    6.7287192817
  - # 33
    frequency:    7.0129739864
  - # 34
    frequency:    8.2791670418
  - # 35
    frequency:   11.0527465974
  - # 36
    frequency:   11.3989480313

- q-position: [    0.4700000,    0.4700000,    0.4700000 ]
  distance:    0.0037281
  band:
  - # 1
    frequency:  -14.2536047810
  - # 2
    frequency:  -12.2867618726
  - # 3
    frequency:  -10.4980576905
  - # 4
    frequency:   -9.8739175230
  - # 5
    frequency:   -9.1168076480
  - # 6
    frequency:   -8.6311726809
  - # 7
    frequency:   -8.0977028772
  - # 8
    frequency:   -7.8976192684
  - # 9
    frequency:   -7.4525080027
  - # 10
    frequency:   -7.3143473850
  - # 11
    frequency:   -6.4544336736
  - # 12
    frequency:   -6.3883008389
  - # 13
    frequency:   -6.0957329182
  - # 14
    frequency:   -5.9209503887
  - # 15
    frequency:   -5.6337758405
  - # 16
    frequency:   -4.9255587389
  - # 17
    frequency:   -4.5894886685
  - # 18
    frequency:   -4.4225092261
  - # 19
    frequency:   -3.5509173790
  - # 20
    frequency:   -3.2257764821
  - # 21
    frequency:   -2.8662353146
  - # 22
    frequency:   -2.2713917259
  - # 23
    frequency:   -1.2287543833
  - # 24
    frequency:    2.0516272196
  - # 25
    frequency:    3.0706853803
  - # 26
    frequency:    4.0660027742
  - # 27
    frequency:    4.2738301561
  - # 28
    frequency:    4.5411569809
  - # 29
    frequency:    5.1221693114
  - # 30
    frequency:    5.9037518694
  - # 31
    frequency:    6.6513159102
  - # 32
    frequency:    6.7106417357
  - # 33
    frequency:    7.0590083607
  - # 34
    frequency:    8.2999254610
  - # 35
    frequency:   11.0401197270
  - # 36
    frequency:   11.4076626114

- q-position: [    0.4600000,    0.4600000,    0.4600000 ]
  distance:    0.0049708
  band:
  - # 1
    frequency:  -14.2131863696
  - # 2
    frequency:  -12.2664145789
  - # 3
    frequency:  -10.5231171900
  - # 4
    frequency:   -9.8744966544
  - # 5
    frequency:   -9.1303635989
  - # 6
    frequency:   -8.6427644173
  - # 7
    frequency:   -8.1535148097
  - # 8
    frequency:   -7.9080483898
  - # 9
    frequency:   -7.4820655009
  - # 10
    frequency:   -7.3558760295
  - # 11
    frequency:   -6.4818819780
  - # 12
    frequency:   -6.4270976323
  - # 13
    frequency:   -6.0778669191
  - # 14
    frequency:   -5.9428698420
  - # 15
    frequency:   -5.6043782544
  - # 16
    frequency:   -4.9205527311
  - # 17
    frequency:   -4.6114187815
  - # 18
    frequency:   -4.3880910669
  - # 19
    frequency:   -3.4897743471
  - # 20
    frequency:   -3.2186463096
  - # 21
    frequency:   -2.8471655719
  - # 22
    frequency:   -2.2999046692
  - # 23
    frequency:   -0.9850802487
  - # 24
    frequency:    2.1781644121
  - # 25
    frequency:    3.0092843969
  - # 26
    frequency:    4.0606188192
  - # 27
    frequency:    4.2951315446
  - # 28
    frequency:    4.6030323314
  - # 29
    frequency:    5.2278014952
  - # 30
    frequency:    6.0272817195
  - # 31
    frequency:    6.6585438625
  - # 32
    frequency:    6.7194023482
  - # 33
    frequency:    7.1229333652
  - # 34
    frequency:    8.3302939287
  - # 35
    frequency:   11.0196670557
  - # 36
    frequency:   11.4242642602

- q-position: [    0.4500000,    0.4500000,    0.4500000 ]
  distance:    0.0062135
  band:
  - # 1
    frequency:  -14.1624751647
  - # 2
    frequency:  -12.2414134250
  - # 3
    frequency:  -10.5556438566
  - # 4
    frequency:   -9.8745140503
  - # 5
    frequency:   -9.1465808474
  - # 6
    frequency:   -8.6666583877
  - # 7
    frequency:   -8.2154302606
  - # 8
    frequency:   -7.9286251304
  - # 9
    frequency:   -7.5187531429
  - # 10
    frequency:   -7.3965688138
  - # 11
    frequency:   -6.5432790118
  - # 12
    frequency:   -6.4349044539
  - # 13
    frequency:   -6.0994273525
  - # 14
    frequency:   -5.9321064898
  - # 15
    frequency:   -5.5807230792
  - # 16
    frequency:   -4.9117148851
  - # 17
    frequency:   -4.6295651355
  - # 18
    frequency:   -4.3533733763
  - # 19
    frequency:   -3.4855665680
  - # 20
    frequency:   -3.1887726128
  - # 21
    frequency:   -2.7820024518
  - # 22
    frequency:   -2.3977084622
  - # 23
    frequency:    0.5283974963
  - # 24
    frequency:    2.2811715524
  - # 25
    frequency:    2.9379648456
  - # 26
    frequency:    4.0578118412
  - # 27
    frequency:    4.3551950288
  - # 28
    frequency:    4.6826181988
  - # 29
    frequency:    5.3368024950
  - # 30
    frequency:    6.1486136406
  - # 31
    frequency:    6.6495134971
  - # 32
    frequency:    6.7605077872
  - # 33
    frequency:    7.2104460618
  - # 34
    frequency:    8.3719443915
  - # 35
    frequency:   10.9904081289
  - # 36
    frequency:   11.4513796132

- q-position: [    0.4400000,    0.4400000,    0.4400000 ]
  distance:    0.0074562
  band:
  - # 1
    frequency:  -14.1024628902
  - # 2
    frequency:  -12.2126764970
  - # 3
    frequency:  -10.5958750629
  - # 4
    frequency:   -9.8738393378
  - # 5
    frequency:   -9.1649775640
  - # 6
    frequency:   -8.7099237160
  - # 7
    frequency:   -8.2761049370
  - # 8
    frequency:   -7.9607126913
  - # 9
    frequency:   -7.5632161048
  - # 10
    frequency:   -7.4301583355
  - # 11
    frequency:   -6.6155119172
  - # 12
    frequency:   -6.4335062162
  - # 13
    frequency:   -6.1516133802
  - # 14
    frequency:   -5.8978568973
  - # 15
    frequency:   -5.5645601651
  - # 16
    frequency:   -4.8990919457
  - # 17
    frequency:   -4.6386770924
  - # 18
    frequency:   -4.3282648467
  - # 19
    frequency:   -3.5300964326
  - # 20
    frequency:   -3.1581667533
  - # 21
    frequency:   -2.6712814884
  - # 22
    frequency:   -2.4850128175
  - # 23
    frequency:    1.3413944287
  - # 24
    frequency:    2.3917961762
  - # 25
    frequency:    2.8819933081
  - # 26
    frequency:    4.0497634674
  - # 27
    frequency:    4.4539275176
  - # 28
    frequency:    4.7762692180
  - # 29
    frequency:    5.4471590233
  - # 30
    frequency:    6.2466313364
  - # 31
    frequency:    6.6528966753
  - # 32
    frequency:    6.8106124090
  - # 33
    frequency:    7.3282183699
  - # 34
    frequency:    8.4277114250
  - # 35
    frequency:   10.9527452657
  - # 36
    frequency:   11.4907548792

- q-position: [    0.4300000,    0.4300000,    0.4300000 ]
  distance:    0.0086989
  band:
  - # 1
    frequency:  -14.0344220602
  - # 2
    frequency:  -12.1813822216
  - # 3
    frequency:  -10.6441059671
  - # 4
    frequency:   -9.8728042194
  - # 5
    frequency:   -9.1853403496
  - # 6
    frequency:   -8.7775309403
  - # 7
    frequency:   -8.3302670232
  - # 8
    frequency:   -8.0025877924
  - # 9
    frequency:   -7.6136480571
  - # 10
    frequency:   -7.4555717366
  - # 11
    frequency:   -6.6904618628
  - # 12
    frequency:   -6.4324962775
  - # 13
    frequency:   -6.2124475337
  - # 14
    frequency:   -5.8612576874
  - # 15
    frequency:   -5.5545553948
  - # 16
    frequency:   -4.8816786888
  - # 17
    frequency:   -4.6393799355
  - # 18
    frequency:   -4.3213145529
  - # 19
    frequency:   -3.5934980127
  - # 20
    frequency:   -3.1422275581
  - # 21
    frequency:   -2.6219563991
  - # 22
    frequency:   -2.4359154400
  - # 23
    frequency:    1.7622872802
  - # 24
    frequency:    2.5117478895
  - # 25
    frequency:    2.9172761322
  - # 26
    frequency:    4.0400302237
  - # 27
    frequency:    4.5729368411
  - # 28
    frequency:    4.8820714861
  - # 29
    frequency:    5.5582306519
  - # 30
    frequency:    6.3071844369
  - # 31
    frequency:    6.6827164934
  - # 32
    frequency:    6.8607036940
  - # 33
    frequency:    7.4772880088
  - # 34
    frequency:    8.5023949913
  - # 35
    frequency:   10.9084623436
  - # 36
    frequency:   11.5432882143

- q-position: [    0.4200000,    0.4200000,    0.4200000 ]
  distance:    0.0099417
  band:
  - # 1
    frequency:  -13.9599496082
  - # 2
    frequency:  -12.1490073324
  - # 3
    frequency:  -10.7006797665
  - # 4
    frequency:   -9.8725869269
  - # 5
    frequency:   -9.2079906502
  - # 6
    frequency:   -8.8673153570
  - # 7
    frequency:   -8.3796699854
  - # 8
    frequency:   -8.0482891312
  - # 9
    frequency:   -7.6678789141
  - # 10
    frequency:   -7.4757778721
  - # 11
    frequency:   -6.7652078436
  - # 12
    frequency:   -6.4372566166
  - # 13
    frequency:   -6.2707956740
  - # 14
    frequency:   -5.8316271082
  - # 15
    frequency:   -5.5471888410
  - # 16
    frequency:   -4.8589169258
  - # 17
    frequency:   -4.6357666896
  - # 18
    frequency:   -4.3379746892
  - # 19
    frequency:   -3.6538161521
  - # 20
    frequency:   -3.1412621654
  - # 21
    frequency:   -2.6329893888
  - # 22
    frequency:   -2.2630290428
  - # 23
    frequency:    1.9921813099
  - # 24
    frequency:    2.5545444903
  - # 25
    frequency:    3.1496494476
  - # 26
    frequency:    4.0333040346
  - # 27
    frequency:    4.6945157988
  - # 28
    frequency:    4.9979117525
  - # 29
    frequency:    5.6688905278
  - # 30
    frequency:    6.3345640895
  - # 31
    frequency:    6.7398407960
  - # 32
    frequency:    6.9075758572
  - # 33
    frequency:    7.6478530633
  - # 34
    frequency:    8.6038282103
  - # 35
    frequency:   10.8604121263
  - # 36
    frequency:   11.6093915291

- q-position: [    0.4100000,    0.4100000,    0.4100000 ]
  distance:    0.0111844
  band:
  - # 1
    frequency:  -13.8810269259
  - # 2
    frequency:  -12.1173759027
  - # 3
    frequency:  -10.7659479518
  - # 4
    frequency:   -9.8758197619
  - # 5
    frequency:   -9.2344231126
  - # 6
    frequency:   -8.9691008355
  - # 7
    frequency:   -8.4316774718
  - # 8
    frequency:   -8.0893811752
  - # 9
    frequency:   -7.7264094124
  - # 10
    frequency:   -7.4941342888
  - # 11
    frequency:   -6.8365484196
  - # 12
    frequency:   -6.4522034386
  - # 13
    frequency:   -6.3197688057
  - # 14
    frequency:   -5.8145203546
  - # 15
    frequency:   -5.5372401042
  - # 16
    frequency:   -4.8329921828
  - # 17
    frequency:   -4.6321125034
  - # 18
    frequency:   -4.3772128758
  - # 19
    frequency:   -3.6982025495
  - # 20
    frequency:   -3.1533980315
  - # 21
    frequency:   -2.6107104671
  - # 22
    frequency:   -2.0787906907
  - # 23
    frequency:    2.1433610650
  - # 24
    frequency:    2.5585470482
  - # 25
    frequency:    3.4834059047
  - # 26
    frequency:    4.0325530322
  - # 27
    frequency:    4.8085914718
  - # 28
    frequency:    5.1196661884
  - # 29
    frequency:    5.7760814442
  - # 30
    frequency:    6.3474929306
  - # 31
    frequency:    6.8150103984
  - # 32
    frequency:    6.9526296307
  - # 33
    frequency:    7.8211799975
  - # 34
    frequency:    8.7430808900
  - # 35
    frequency:   10.8122947476
  - # 36
    frequency:   11.6892932681

- q-position: [    0.4000000,    0.4000000,    0.4000000 ]
  distance:    0.0124271
  band:
  - # 1
    frequency:  -13.8001029027
  - # 2
    frequency:  -12.0887197099
  - # 3
    frequency:  -10.8401708365
  - # 4
    frequency:   -9.8874746700
  - # 5
    frequency:   -9.2685541192
  - # 6
    frequency:   -9.0665754169
  - # 7
    frequency:   -8.4917897024
  - # 8
    frequency:   -8.1200957685
  - # 9
    frequency:   -7.7919301351
  - # 10
    frequency:   -7.5126737959
  - # 11
    frequency:   -6.9000137349
  - # 12
    frequency:   -6.4787375229
  - # 13
    frequency:   -6.3563729485
  - # 14
    frequency:   -5.8139323212
  - # 15
    frequency:   -5.5198824215
  - # 16
    frequency:   -4.8091097470
  - # 17
    frequency:   -4.6310658415
  - # 18
    frequency:   -4.4301248110
  - # 19
    frequency:   -3.7240202091
  - # 20
    frequency:   -3.1732653840
  - # 21
    frequency:   -2.5498133223
  - # 22
    frequency:   -1.9088960567
  - # 23
    frequency:    2.2735913184
  - # 24
    frequency:    2.5842660749
  - # 25
    frequency:    3.8175742278
  - # 26
    frequency:    4.0409624775
  - # 27
    frequency:    4.9116959414
  - # 28
    frequency:    5.2416524402
  - # 29
    frequency:    5.8743262990
  - # 30
    frequency:    6.3640154145
  - # 31
    frequency:    6.8966988026
  - # 32
    frequency:    7.0038460927
  - # 33
    frequency:    7.9774901843
  - # 34
    frequency:    8.9308401814
  - # 35
    frequency:   10.7686715996
  - # 36
    frequency:   11.7831721440

- q-position: [    0.3900000,    0.3900000,    0.3900000 ]
  distance:    0.0136698
  band:
  - # 1
    frequency:  -13.7202094594
  - # 2
    frequency:  -12.0657416395
  - # 3
    frequency:  -10.9233268391
  - # 4
    frequency:   -9.9155360427
  - # 5
    frequency:   -9.3151627673
  - # 6
    frequency:   -9.1404967454
  - # 7
    frequency:   -8.5590137391
  - # 8
    frequency:   -8.1411392804
  - # 9
    frequency:   -7.8670426196
  - # 10
    frequency:   -7.5314348699
  - # 11
    frequency:   -6.9510200398
  - # 12
    frequency:   -6.5129899228
  - # 13
    frequency:   -6.3831200662
  - # 14
    frequency:   -5.8301523802
  - # 15
    frequency:   -5.4944884167
  - # 16
    frequency:   -4.7943091743
  - # 17
    frequency:   -4.6333576654
  - # 18
    frequency:   -4.4831990204
  - # 19
    frequency:   -3.7367952736
  - # 20
    frequency:   -3.1923198427
  - # 21
    frequency:   -2.4557795399
  - # 22
    frequency:   -1.7619005609
  - # 23
    frequency:    2.3932602000
  - # 24
    frequency:    2.6497823489
  - # 25
    frequency:    4.0372820718
  - # 26
    frequency:    4.1422413696
  - # 27
    frequency:    5.0036593805
  - # 28
    frequency:    5.3589108648
  - # 29
    frequency:    5.9580019063
  - # 30
    frequency:    6.3959926529
  - # 31
    frequency:    6.9651431662
  - # 32
    frequency:    7.0819197159
  - # 33
    frequency:    8.1054388772
  - # 34
    frequency:    9.1697039666
  - # 35
    frequency:   10.7352523280
  - # 36
    frequency:   11.8911794543

- q-position: [    0.3800000,    0.3800000,    0.3800000 ]
  distance:    0.0149125
  band:
  - # 1
    frequency:  -13.6451214851
  - # 2
    frequency:  -12.0516447151
  - # 3
    frequency:  -11.0148270395
  - # 4
    frequency:   -9.9691886943
  - # 5
    frequency:   -9.3667929075
  - # 6
    frequency:   -9.1839614571
  - # 7
    frequency:   -8.6279318841
  - # 8
    frequency:   -8.1585151791
  - # 9
    frequency:   -7.9511358767
  - # 10
    frequency:   -7.5485875459
  - # 11
    frequency:   -6.9872607739
  - # 12
    frequency:   -6.5492879898
  - # 13
    frequency:   -6.4042133212
  - # 14
    frequency:   -5.8592744840
  - # 15
    frequency:   -5.4652035253
  - # 16
    frequency:   -4.7964003060
  - # 17
    frequency:   -4.6387486482
  - # 18
    frequency:   -4.5220843962
  - # 19
    frequency:   -3.7456071984
  - # 20
    frequency:   -3.2016331452
  - # 21
    frequency:   -2.3331147387
  - # 22
    frequency:   -1.6346152248
  - # 23
    frequency:    2.5005041396
  - # 24
    frequency:    2.7496098094
  - # 25
    frequency:    4.0667789903
  - # 26
    frequency:    4.4014863753
  - # 27
    frequency:    5.0861199525
  - # 28
    frequency:    5.4683861620
  - # 29
    frequency:    6.0266610345
  - # 30
    frequency:    6.4474486628
  - # 31
    frequency:    7.0115306123
  - # 32
    frequency:    7.1968540663
  - # 33
    frequency:    8.2049463238
  - # 34
    frequency:    9.4506134866
  - # 35
    frequency:   10.7196752909
  - # 36
    frequency:   12.0134223672

- q-position: [    0.3700000,    0.3700000,    0.3700000 ]
  distance:    0.0161552
  band:
  - # 1
    frequency:  -13.5795699767
  - # 2
    frequency:  -12.0500134743
  - # 3
    frequency:  -11.1132278436
  - # 4
    frequency:  -10.0521330515
  - # 5
    frequency:   -9.4054582013
  - # 6
    frequency:   -9.2073806342
  - # 7
    frequency:   -8.6923241269
  - # 8
    frequency:   -8.1828716178
  - # 9
    frequency:   -8.0357673931
  - # 10
    frequency:   -7.5617208556
  - # 11
    frequency:   -7.0101380492
  - # 12
    frequency:   -6.5834117373
  - # 13
    frequency:   -6.4220392203
  - # 14
    frequency:   -5.8955725360
  - # 15
    frequency:   -5.4375504360
  - # 16
    frequency:   -4.8202080267
  - # 17
    frequency:   -4.6504668238
  - # 18
    frequency:   -4.5330554570
  - # 19
    frequency:   -3.7583810891
  - # 20
    frequency:   -3.1950925574
  - # 21
    frequency:   -2.1843827947
  - # 22
    frequency:   -1.5135594421
  - # 23
    frequency:    2.5982899441
  - # 24
    frequency:    2.8616182420
  - # 25
    frequency:    4.0969932340
  - # 26
    frequency:    4.6208398032
  - # 27
    frequency:    5.1642061615
  - # 28
    frequency:    5.5684654255
  - # 29
    frequency:    6.0870099972
  - # 30
    frequency:    6.5153167573
  - # 31
    frequency:    7.0483599949
  - # 32
    frequency:    7.3349524430
  - # 33
    frequency:    8.2814512385
  - # 34
    frequency:    9.7558952708
  - # 35
    frequency:   10.7336599355
  - # 36
    frequency:   12.1499532747

- q-position: [    0.3600000,    0.3600000,    0.3600000 ]
  distance:    0.0173979
  band:
  - # 1
    frequency:  -13.5294921204
  - # 2
    frequency:  -12.0642975142
  - # 3
    frequency:  -11.2162268268
  - # 4
    frequency:  -10.1574304525
  - # 5
    frequency:   -9.4251733085
  - # 6
    frequency:   -9.2213161211
  - # 7
    frequency:   -8.7465287095
  - # 8
    frequency:   -8.2328789940
  - # 9
    frequency:   -8.0997637262
  - # 10
    frequency:   -7.5693992138
  - # 11
    frequency:   -7.0240241795
  - # 12
    frequency:   -6.6120670270
  - # 13
    frequency:   -6.4377232468
  - # 14
    frequency:   -5.9330812873
  - # 15
    frequency:   -5.4155285323
  - # 16
    frequency:   -4.8625444736
  - # 17
    frequency:   -4.6732740190
  - # 18
    frequency:   -4.5108865736
  - # 19
    frequency:   -3.7780820699
  - # 20
    frequency:   -3.1723824189
  - # 21
    frequency:   -2.0118805397
  - # 22
    frequency:   -1.3771237091
  - # 23
    frequency:    2.6874627275
  - # 24
    frequency:    2.9654344030
  - # 25
    frequency:    4.1334865317
  - # 26
    frequency:    4.7854441790
  - # 27
    frequency:    5.2487974462
  - # 28
    frequency:    5.6583929519
  - # 29
    frequency:    6.1471681501
  - # 30
    frequency:    6.5950447600
  - # 31
    frequency:    7.0829646086
  - # 32
    frequency:    7.4850507885
  - # 33
    frequency:    8.3406245035
  - # 34
    frequency:   10.0582637713
  - # 35
    frequency:   10.7988316359
  - # 36
    frequency:   12.3007907764

- q-position: [    0.3500000,    0.3500000,    0.3500000 ]
  distance:    0.0186406
  band:
  - # 1
    frequency:  -13.5022141171
  - # 2
    frequency:  -12.0965855080
  - # 3
    frequency:  -11.3213832297
  - # 4
    frequency:  -10.2719513096
  - # 5
    frequency:   -9.4310510209
  - # 6
    frequency:   -9.2330241724
  - # 7
    frequency:   -8.7856760738
  - # 8
    frequency:   -8.3115325384
  - # 9
    frequency:   -8.1341199335
  - # 10
    frequency:   -7.5718377718
  - # 11
    frequency:   -7.0341631958
  - # 12
    frequency:   -6.6327460493
  - # 13
    frequency:   -6.4518731411
  - # 14
    frequency:   -5.9658348555
  - # 15
    frequency:   -5.4007371756
  - # 16
    frequency:   -4.9170398593
  - # 17
    frequency:   -4.7042110515
  - # 18
    frequency:   -4.4634242175
  - # 19
    frequency:   -3.8024694690
  - # 20
    frequency:   -3.1387121885
  - # 21
    frequency:   -1.8198631602
  - # 22
    frequency:   -1.1943714066
  - # 23
    frequency:    2.7627509271
  - # 24
    frequency:    3.0519525520
  - # 25
    frequency:    4.1744545299
  - # 26
    frequency:    4.8896952529
  - # 27
    frequency:    5.3503657481
  - # 28
    frequency:    5.7383016426
  - # 29
    frequency:    6.2111127518
  - # 30
    frequency:    6.6843410264
  - # 31
    frequency:    7.1186310378
  - # 32
    frequency:    7.6387333352
  - # 33
    frequency:    8.3873466165
  - # 34
    frequency:   10.3149096266
  - # 35
    frequency:   10.9534731517
  - # 36
    frequency:   12.4659915402

- q-position: [    0.3400000,    0.3400000,    0.3400000 ]
  distance:    0.0198833
  band:
  - # 1
    frequency:  -13.5062526598
  - # 2
    frequency:  -12.1458771573
  - # 3
    frequency:  -11.4276109941
  - # 4
    frequency:  -10.3830357942
  - # 5
    frequency:   -9.4298104241
  - # 6
    frequency:   -9.2483459428
  - # 7
    frequency:   -8.8070073560
  - # 8
    frequency:   -8.3937462948
  - # 9
    frequency:   -8.1557931925
  - # 10
    frequency:   -7.5707108736
  - # 11
    frequency:   -7.0442290519
  - # 12
    frequency:   -6.6455094680
  - # 13
    frequency:   -6.4639784030
  - # 14
    frequency:   -5.9880153627
  - # 15
    frequency:   -5.3929662259
  - # 16
    frequency:   -4.9798482793
  - # 17
    frequency:   -4.7383153314
  - # 18
    frequency:   -4.3994453519
  - # 19
    frequency:   -3.8271070156
  - # 20
    frequency:   -3.1013245272
  - # 21
    frequency:   -1.6156420742
  - # 22
    frequency:   -0.9122519869
  - # 23
    frequency:    2.8152831178
  - # 24
    frequency:    3.1229029931
  - # 25
    frequency:    4.2158066388
  - # 26
    frequency:    4.9447109858
  - # 27
    frequency:    5.4645661921
  - # 28
    frequency:    5.8092197536
  - # 29
    frequency:    6.2787442685
  - # 30
    frequency:    6.7818621396
  - # 31
    frequency:    7.1581944851
  - # 32
    frequency:    7.7882747894
  - # 33
    frequency:    8.4267959585
  - # 34
    frequency:   10.4985196355
  - # 35
    frequency:   11.2205454206
  - # 36
    frequency:   12.6457965900

- q-position: [    0.3300000,    0.3300000,    0.3300000 ]
  distance:    0.0211260
  band:
  - # 1
    frequency:  -13.5501559901
  - # 2
    frequency:  -12.2074594627
  - # 3
    frequency:  -11.5362059108
  - # 4
    frequency:  -10.4810346305
  - # 5
    frequency:   -9.4269172339
  - # 6
    frequency:   -9.2700347846
  - # 7
    frequency:   -8.8128938996
  - # 8
    frequency:   -8.4605112525
  - # 9
    frequency:   -8.1740753790
  - # 10
    frequency:   -7.5686056432
  - # 11
    frequency:   -7.0545312051
  - # 12
    frequency:   -6.6551654238
  - # 13
    frequency:   -6.4709563349
  - # 14
    frequency:   -5.9946981805
  - # 15
    frequency:   -5.3915329435
  - # 16
    frequency:   -5.0487583157
  - # 17
    frequency:   -4.7715827439
  - # 18
    frequency:   -4.3254363103
  - # 19
    frequency:   -3.8477938137
  - # 20
    frequency:   -3.0664103882
  - # 21
    frequency:   -1.4070841148
  - # 22
    frequency:   -0.3128237448
  - # 23
    frequency:    2.8368645086
  - # 24
    frequency:    3.1867808666
  - # 25
    frequency:    4.2518668939
  - # 26
    frequency:    4.9723886784
  - # 27
    frequency:    5.5764879581
  - # 28
    frequency:    5.8724852526
  - # 29
    frequency:    6.3486391535
  - # 30
    frequency:    6.8840187773
  - # 31
    frequency:    7.2059759053
  - # 32
    frequency:    7.9258417394
  - # 33
    frequency:    8.4658972651
  - # 34
    frequency:   10.6400494943
  - # 35
    frequency:   11.5638661741
  - # 36
    frequency:   12.8408894218

- q-position: [    0.3200000,    0.3200000,    0.3200000 ]
  distance:    0.0223687
  band:
  - # 1
    frequency:  -13.6400438057
  - # 2
    frequency:  -12.2754439596
  - # 3
    frequency:  -11.6495715610
  - # 4
    frequency:  -10.5599336798
  - # 5
    frequency:   -9.4283510076
  - # 6
    frequency:   -9.2949447088
  - # 7
    frequency:   -8.8119489286
  - # 8
    frequency:   -8.4993003819
  - # 9
    frequency:   -8.1909975929
  - # 10
    frequency:   -7.5683330021
  - # 11
    frequency:   -7.0622298418
  - # 12
    frequency:   -6.6697859178
  - # 13
    frequency:   -6.4676258278
  - # 14
    frequency:   -5.9829820592
  - # 15