96
72

1
  0.0200000000  0.0000000000  0.0000000000
   0.0012649609   0.0001376837  -0.0004485287
  -0.0001074853   0.0006709990  -0.0002045748
   0.0007256777   0.0000998525  -0.0000548921
   0.0005331328   0.0003086363  -0.0002694255
   0.0004876231  -0.0000217716  -0.0002337389
   0.0004912674   0.0003608764  -0.0001960407
   0.0009156878   0.0003441479  -0.0002516411
   0.0005679065   0.0004853000  -0.0003974873
  -0.0009056804   0.0000815906   0.0002777907
  -0.0009172027   0.0001432606   0.0001639567
  -0.0003690944  -0.0000149653  -0.0002298917
  -0.0007236905   0.0001788214  -0.0000973516
  -0.0011218516   0.0001364596   0.0001092088
  -0.0004026897   0.0000546964  -0.0002417847
  -0.0008290441   0.0001494504   0.0000866723
  -0.0009109637   0.0001769255   0.0002848668
   0.0003467719  -0.0001129891  -0.0003463564
   0.0004281854  -0.0001522262  -0.0002891553
   0.0004309646  -0.0000161906  -0.0006911445
   0.0002273691  -0.0000836541  -0.0005254746
   0.0002187231  -0.0004765155  -0.0003537130
   0.0001188990  -0.0002651732  -0.0004048358
   0.0005096664   0.0003463927  -0.0008006347
   0.0001542523   0.0000439291  -0.0004544952
  -0.0000155063   0.0005362374  -0.0009993570
   0.0000174594   0.0005045308  -0.0009056076
   0.0004532071   0.0003475450  -0.0005346077
   0.0002238136   0.0003342060   0.0004795681
   0.0005252518   0.0003094137  -0.0001380710
   0.0002204250   0.0002135616  -0.0005868952
   0.0000516841   0.0005373054  -0.0010080720
   0.0001051153   0.0006504231  -0.0009260681
   0.0002063885   0.0002239846   0.0003375657
  -0.0000562072   0.0001884974   0.0003033089
   0.0006218583   0.0001068824   0.0010170491
   0.0004999706  -0.0001298073   0.0017161005
   0.0002645067  -0.0000946482   0.0012038152
   0.0001797389   0.0000851190   0.0003008494
   0.0002486497   0.0001718175   0.0003517451
   0.0001487304   0.0001279154   0.0003051213
  -0.0004428516   0.0000394673   0.0001143829
  -0.0004446570  -0.0000467476   0.0002425640
  -0.0007933922  -0.0001473269  -0.0000785142
  -0.0013067388  -0.0001129276  -0.0003476215
  -0.0011419208   0.0000436187  -0.0003512083
  -0.0006437932   0.0000188055   0.0000395753
  -0.0004772763  -0.0000510544   0.0002223429
  -0.0005062465   0.0000252134   0.0003373145
   0.0005952169  -0.0001782726   0.0006089032
   0.0003206731  -0.0002293690   0.0004855459
   0.0004509040   0.0005368688   0.0001462761
   0.0002277912   0.0000210194   0.0006956830
   0.0004546269   0.0000940011   0.0004515726
   0.0006478686  -0.0000047022   0.0006501867
   0.0006544525   0.0003182650   0.0001887920
   0.0004065871  -0.0000887431   0.0003826274
  -0.0000129161  -0.0003916144   0.0000382653
   0.0002409388  -0.0002419893   0.0003691502
   0.0003766392  -0.0003196130   0.0001914259
   0.0005739248  -0.0008172774  -0.0001106778
   0.0005046892  -0.0005740872  -0.0000085645
   0.0004058078  -0.0002349487   0.0002472647
   0.0001464308  -0.0003645205   0.0004153880
   0.0001188285  -0.0002333337   0.0003747370
  -0.0003777030  -0.0002522350   0.0004747684
  -0.0003305496  -0.0003229269  -0.0002382421
  -0.0003042463  -0.0004161000  -0.0001551405
  -0.0003047555  -0.0002317802  -0.0012746625
  -0.0004249531  -0.0003421792  -0.0004288268
  -0.0003985787  -0.0003859251   0.0000882157
  -0.0002657197  -0.0002346426   0.0001610369
  -0.0003113026  -0.0003010697   0.0000236968
  -0.0003195741   0.0004830988   0.0006290751
  -0.0000746653   0.0008913565   0.0000946663
  -0.0002784631   0.0002535306   0.0003716377
  -0.0004622918   0.0000831703   0.0006661423
  -0.0004429286   0.0002013824   0.0006202980
  -0.0004374960   0.0000887033   0.0005816170
  -0.0002280915   0.0006887677   0.0002533031
  -0.0002832609   0.0001631066   0.0005946303
  -0.0001347454  -0.0009474803   0.0000980664
  -0.0000976199  -0.0011489504   0.0002234298
  -0.0004203675  -0.0005852658  -0.0001335514
  -0.0006511571  -0.0004520385  -0.0003854194
  -0.0005540301  -0.0003172398  -0.0004433825
   0.0000586471  -0.0010059305   0.0002120625
  -0.0002285573  -0.0011087646  -0.0000161469
  -0.0001454577  -0.0010607183  -0.0000001240
   0.0001476789   0.0001886557  -0.0005409994
   0.0000974651  -0.0000003336  -0.0006786048
   0.0003694916   0.0003573919  -0.0001449606
   0.0004428004   0.0005238968  -0.0001544081
   0.0004149171   0.0006005439  -0.0003114439
   0.0003997997   0.0003673341  -0.0000174503
  -0.0000215877   0.0000589152  -0.0006226816
   0.0003832450   0.0004144763  -0.0001997820

1
  -0.0200000000  0.0000000000  0.0000000000
  -0.0010981651   0.0001586783  -0.0003746998
  -0.0002886201   0.0003148216  -0.0004851942
   0.0005619848   0.0005590860  -0.0002268354
  -0.0000334904   0.0001580384  -0.0002960864
   0.0007765460   0.0001821510  -0.0002309612
   0.0006636777   0.0002478858  -0.0002351030
   0.0005750587   0.0001846755  -0.0001654076
   0.0004432222   0.0003603166  -0.0004050975
  -0.0010301880   0.0000822541   0.0002365350
  -0.0008938102  -0.0000717183   0.0001493599
  -0.0006839147   0.0000550072  -0.0002011453
  -0.0010059643  -0.0000821870   0.0001872031
  -0.0004000292   0.0002236698  -0.0000648425
  -0.0005887118   0.0000826257  -0.0003171353
  -0.0011702404  -0.0001501497   0.0000525306
  -0.0007651454   0.0003500878  -0.0001972096
   0.0002899656  -0.0000387138  -0.0004043130
   0.0003700672   0.0000453315  -0.0004003839
   0.0002793911  -0.0000752925  -0.0006269800
   0.0003709998  -0.0001410289  -0.0006415282
   0.0002962881  -0.0003983195  -0.0005383359
   0.0002638649   0.0003168608  -0.0003550284
   0.0005333359  -0.0001133807  -0.0003880249
   0.0007940911   0.0002042553  -0.0004883961
   0.0001908600   0.0004115264  -0.0004813795
   0.0000445651   0.0004829992  -0.0010664025
   0.0001036272   0.0004227535  -0.0010378990
   0.0002903466   0.0005250375  -0.0013923637
   0.0005535784   0.0002293004  -0.0008079885
   0.0002306817   0.0003488782  -0.0005702043
   0.0000546338   0.0003615814  -0.0010867873
   0.0001672775   0.0003389995  -0.0006287755
   0.0001561305   0.0000353528   0.0010547647
   0.0000033726   0.0000772910   0.0002270650
   0.0004573402  -0.0001891337   0.0005254170
   0.0005049514   0.0000161512   0.0001530387
   0.0002828076   0.0002039529   0.0002092248
   0.0000981401  -0.0000436167   0.0007851349
   0.0002387424   0.0001356621   0.0003825878
   0.0003339319   0.0001191080   0.0004185422
  -0.0009585010   0.0002750343  -0.0002547405
  -0.0003216230   0.0000777711   0.0002808654
  -0.0005042934  -0.0001153043   0.0000217114
  -0.0006080168  -0.0000558315  -0.0000768209
  -0.0007341401   0.0000792066  -0.0000763649
  -0.0005876117   0.0000106255  -0.0000088610
  -0.0004846984  -0.0000109821   0.0002312146
  -0.0005981646  -0.0000284613  -0.0000138454
   0.0002708688  -0.0003650555   0.0005610071
   0.0000826531   0.0003308854   0.0004864207
   0.0005911797   0.0002477165   0.0005984655
   0.0009220580   0.0003783680   0.0004701430
   0.0004606456  -0.0000567084   0.0005944758
   0.0005901599  -0.0000455559   0.0004725693
   0.0004722232   0.0001495529   0.0003419566
   0.0006047113   0.0002072615   0.0003483681
   0.0003251784  -0.0005352540   0.0001781848
   0.0004299521  -0.0001529144   0.0003921383
   0.0005513621   0.0001987963   0.0001145491
   0.0006005035  -0.0003152163   0.0001029603
   0.0004403333  -0.0004006403   0.0000189188
   0.0002138945  -0.0004333705   0.0001917254
   0.0001614136  -0.0002393137   0.0002351218
   0.0001881410  -0.0003947600   0.0001304402
  -0.0003744330  -0.0003901565  -0.0002782775
  -0.0003785857  -0.0002479454   0.0005367454
  -0.0000851790  -0.0001578027   0.0000243913
  -0.0002578955  -0.0002682927   0.0017675191
  -0.0002809726  -0.0004345795   0.0012828530
  -0.0003357686  -0.0003534956  -0.0002476436
  -0.0003399369  -0.0002410809   0.0004816741
  -0.0003292432  -0.0003223117   0.0002611287
  -0.0000333139   0.0001482114   0.0005229887
  -0.0001529799   0.0001074817   0.0003211823
  -0.0005189395   0.0002442200   0.0003162465
  -0.0002818023   0.0000582896   0.0004367660
  -0.0005702338   0.0001916883   0.0006143796
  -0.0005656366   0.0003499276   0.0005627572
  -0.0002773528   0.0003564903   0.0001803074
  -0.0003904877   0.0003377548   0.0005071208
  -0.0003562009  -0.0008566568  -0.0000797226
  -0.0001795298  -0.0010377557   0.0001135488
  -0.0002295999  -0.0010940161   0.0001441248
  -0.0003782517  -0.0007629525  -0.0002689792
   0.0000686944  -0.0008462405  -0.0001380883
  -0.0000055468  -0.0007726509  -0.0002767940
  -0.0000313320  -0.0009989460   0.0001658943
  -0.0004848634  -0.0008662085  -0.0001074113
   0.0003760364   0.0004699697  -0.0003909978
   0.0002281767   0.0002764794  -0.0004522155
   0.0004475653   0.0003920644  -0.0003461975
   0.0004953027   0.0005752398  -0.0001089709
   0.0002869094   0.0004714044  -0.0001770070
   0.0001750280   0.0004430402  -0.0004099926
   0.0003897050   0.0001067161  -0.0002070250
   0.0002912385   0.0003854581  -0.0003578094

1
  0.0099911981  0.0173255869  0.0000000000
   0.0006898965   0.0010411637  -0.0004363577
  -0.0005328710   0.0008183529  -0.0002629291
   0.0005227472   0.0006804479  -0.0001445581
   0.0006050331   0.0006149343  -0.0003191491
   0.0001712992   0.0004274055  -0.0003416228
   0.0009076156   0.0004552544  -0.0001124911
   0.0006854584   0.0003947728  -0.0002731699
   0.0005512826   0.0000345402  -0.0001066436
  -0.0010046561   0.0002381363   0.0000170797
  -0.0003656934   0.0001461435  -0.0001567174
  -0.0010162705   0.0000315104   0.0001991749
  -0.0006980750   0.0000516978   0.0000755705
  -0.0008246034   0.0000610814   0.0001120081
  -0.0007049057   0.0001350784   0.0000326671
  -0.0003002786  -0.0000811614  -0.0001331905
  -0.0010047807   0.0002685256   0.0000975271
   0.0001410791  -0.0002883402  -0.0004021089
   0.0002916377  -0.0001089421  -0.0005744775
   0.0006155169  -0.0000245671  -0.0003792180
   0.0002745970  -0.0000189539  -0.0004906857
   0.0001441050  -0.0002029599  -0.0004195669
   0.0003866525  -0.0000496886  -0.0004693318
   0.0004059820   0.0002707039  -0.0008319959
   0.0003808757  -0.0003060804  -0.0002512224
   0.0002261155   0.0005010539   0.0000725904
   0.0001393795   0.0004268621  -0.0010631689
   0.0005178513   0.0003256875  -0.0007735061
   0.0000682654   0.0003932623  -0.0010342638
   0.0007107095   0.0003201892  -0.0009597760
   0.0001298970   0.0001084823  -0.0007337779
  -0.0000112090   0.0001956175  -0.0007840915
   0.0002107250   0.0003930995   0.0001443035
   0.0002359746   0.0000339326   0.0012673429
  -0.0000028788  -0.0002037176   0.0002598567
   0.0005238952  -0.0001281986   0.0008595504
   0.0005660143  -0.0001218728   0.0002508270
   0.0002129365  -0.0000679220   0.0003307710
   0.0003965057   0.0000027725   0.0001332356
   0.0001764921   0.0000469908   0.0003709551
   0.0003384598   0.0000579201   0.0016658240
  -0.0012406959   0.0000234030  -0.0005485300
  -0.0003244333  -0.0000253353   0.0002596365
  -0.0008203109  -0.0002462832   0.0000846488
  -0.0005832639   0.0000690341   0.0002438812
  -0.0006198244   0.0000366995   0.0000314777
  -0.0006143230  -0.0000268831   0.0000720746
  -0.0004254507   0.0000833210   0.0000854516
  -0.0013630604   0.0001755729  -0.0003374393
   0.0005364911   0.0000121019   0.0005048321
   0.0003538759   0.0002170133   0.0004565376
   0.0002995850   0.0002746435   0.0001694594
   0.0005644966  -0.0002723068   0.0007349698
   0.0004339785   0.0000899958   0.0004323802
   0.0005577809   0.0001135105   0.0003561093
   0.0008253983   0.0002166818   0.0004990124
   0.0003226642   0.0000544028   0.0004252239
   0.0004422601  -0.0008488152  -0.0000885994
   0.0003024630  -0.0000431258   0.0003216829
   0.0003244906  -0.0003303454   0.0001548220
   0.0002872594  -0.0003055177   0.0003030634
   0.0001354820  -0.0003841283   0.0002172495
   0.0003474040  -0.0004029373   0.0003160499
   0.0002181834  -0.0001767754   0.0003070723
   0.0005432158  -0.0007247300   0.0000518423
  -0.0003114935  -0.0003284797  -0.0005916309
  -0.0003591529  -0.0003289847  -0.0000168064
  -0.0002745740  -0.0004222253   0.0004154962
  -0.0003077970  -0.0001340343   0.0002085377
  -0.0002943140  -0.0002256768   0.0009140130
  -0.0003352119  -0.0003329579   0.0005676476
  -0.0003691488  -0.0002908737  -0.0002010776
  -0.0001827985  -0.0005366177  -0.0010544495
  -0.0002913075   0.0002160036   0.0004863189
  -0.0000669794   0.0001745725   0.0004890698
  -0.0001827402   0.0007190917   0.0001383974
  -0.0003458079   0.0000840071   0.0006931531
  -0.0003479489   0.0001580482   0.0006702593
  -0.0002047673   0.0006802187   0.0002242189
  -0.0005197401   0.0002102033   0.0005102680
  -0.0003594159   0.0002621809   0.0004761536
  -0.0005874396  -0.0004235375  -0.0003081038
  -0.0002207460  -0.0010853523   0.0001496783
  -0.0003682495  -0.0007624883  -0.0001523146
  -0.0003054939  -0.0010947217   0.0000345560
  -0.0002890244  -0.0010169421  -0.0002146126
   0.0001213458  -0.0010087829   0.0001720726
  -0.0003819438  -0.0010995960   0.0000777150
  -0.0006712775  -0.0004876835  -0.0004753386
   0.0002908975   0.0002734364  -0.0003983168
   0.0004430806   0.0004331360  -0.0001317858
   0.0000305306   0.0000138290  -0.0006091058
   0.0004330599   0.0005781382  -0.0002176960
   0.0005304676   0.0005648345  -0.0002512110
  -0.0001353017   0.0000842149  -0.0005796530
   0.0001784412   0.0002077718  -0.0002384785
   0.0004204099   0.0004668522  -0.0002751434

1
  -0.0099911981  -0.0173255869  0.0000000000
  -0.0009543462  -0.0009462781  -0.0004329458
  -0.0000029644   0.0005379880  -0.0001365945
  -0.0002250586  -0.0003575623  -0.0006544382
   0.0001491303  -0.0001973488  -0.0004644037
  -0.0000999096   0.0006389834  -0.0004729304
  -0.0000466707   0.0007335932  -0.0005353753
   0.0001066540   0.0004941622  -0.0005906264
   0.0000158334   0.0005265275  -0.0005738139
   0.0000749879   0.0000715213  -0.0002207802
   0.0004289601  -0.0000310320  -0.0004357893
   0.0001987846   0.0001222254  -0.0003308251
   0.0003652564   0.0000643011  -0.0003866823
   0.0001101672   0.0001750462  -0.0002377355
   0.0002868210   0.0000888979  -0.0003262130
   0.0001741115   0.0002512741  -0.0003090027
   0.0002797808   0.0001287424  -0.0004263168
   0.0002835365  -0.0002375224  -0.0001084099
   0.0001245067   0.0000047350  -0.0002567141
   0.0001518867  -0.0003261791  -0.0001029317
   0.0000102280  -0.0000342142  -0.0003676394
  -0.0002206643  -0.0002241110  -0.0003380153
   0.0001529975   0.0001411958  -0.0000990506
   0.0002685645  -0.0000211598  -0.0004387933
   0.0001221758   0.0001295953  -0.0003389349
  -0.0001459529  -0.0000181406  -0.0007487806
  -0.0000983325   0.0001313336  -0.0009033610
  -0.0002424660   0.0001490472   0.0004358088
   0.0000004833   0.0001416776   0.0001332406
  -0.0000454595   0.0002125163  -0.0000459938
   0.0002887532   0.0007104029  -0.0005781362
   0.0000847086  -0.0000041089  -0.0005658665
  -0.0003118970   0.0006191035  -0.0004876023
  -0.0001949647  -0.0001425090   0.0004913934
  -0.0000300735  -0.0005433544  -0.0000384781
   0.0002622835  -0.0003287053   0.0015114343
   0.0000493462  -0.0007039836   0.0012594068
  -0.0001054950  -0.0006819219   0.0008320011
  -0.0003032179  -0.0004901042   0.0006241240
   0.0000227404  -0.0006483459   0.0006100010
  -0.0000868328  -0.0007934762   0.0003170357
  -0.0010138641   0.0006233071  -0.0001395879
  -0.0004244413   0.0005521396  -0.0001731056
  -0.0011400182   0.0005487385  -0.0004342854
  -0.0004432619   0.0002923968  -0.0000304832
  -0.0009181260   0.0004730906  -0.0003398489
  -0.0005758186   0.0005114275  -0.0002653681
  -0.0008779188   0.0004994939  -0.0003569753
  -0.0008735347   0.0004747328  -0.0003832991
  -0.0001597306  -0.0001177268   0.0009813380
   0.0004838240  -0.0000365899   0.0013642542
   0.0003262758   0.0002293428   0.0010084962
   0.0005358357   0.0002463671   0.0011701948
   0.0005959714  -0.0000817780   0.0011802270
   0.0007011719   0.0000702053   0.0010810248
   0.0005043244   0.0000745983   0.0010816653
   0.0005011684   0.0000091680   0.0011793676
   0.0010917980  -0.0007104825  -0.0001326635
   0.0010200048  -0.0006846587   0.0000283524
   0.0013369120  -0.0009403605  -0.0002011426
   0.0007636808  -0.0008240936  -0.0000348616
   0.0009961221  -0.0007954891  -0.0000971184
   0.0008486276  -0.0006896497   0.0000701290
   0.0009742613  -0.0007487505   0.0000010447
   0.0010357016  -0.0008434281  -0.0000335826
  -0.0003796802  -0.0000595332   0.0008594467
  -0.0000054561  -0.0000105816   0.0018183010
   0.0000905870  -0.0000618960  -0.0006789459
  -0.0001867238  -0.0004474762  -0.0002473358
  -0.0001917982  -0.0004326925   0.0002672938
  -0.0002184085  -0.0003914579   0.0002479244
  -0.0002353166  -0.0001566028   0.0009648396
  -0.0003091028  -0.0000696824   0.0008765313
  -0.0000708798   0.0012317537   0.0001004621
  -0.0002976564   0.0007477890   0.0005312139
  -0.0002490794   0.0008154333   0.0001006615
  -0.0003862306   0.0006365070   0.0002765672
  -0.0003936886   0.0006874303   0.0003952721
  -0.0002679588   0.0007438344   0.0001950144
  -0.0002946258   0.0009026474   0.0002825673
  -0.0005021818   0.0005244014   0.0005877363
  -0.0009117806  -0.0006327614  -0.0005878401
  -0.0007550591  -0.0008614897  -0.0004739542
  -0.0009415898  -0.0003498533  -0.0005228135
  -0.0007964059  -0.0005665346  -0.0005172410
  -0.0007043860  -0.0003635308  -0.0003967102
  -0.0004023191  -0.0007256077  -0.0003830340
  -0.0007366873  -0.0003676678  -0.0005031086
  -0.0009102138  -0.0006414710  -0.0006361083
   0.0003716947   0.0001088890  -0.0006107462
   0.0004473016   0.0003942183  -0.0004474679
   0.0004144351   0.0003628829  -0.0003219037
   0.0005739064   0.0004910663  -0.0002700209
   0.0005157723   0.0001520149  -0.0005434677
   0.0004087206   0.0005480682  -0.0004163751
   0.0005599017  -0.0000915946  -0.0003474342
   0.0005775547   0.0004086841  -0.0003843677

1
  0.0066865295  0.0038771599  0.0184460824
   0.0006406641   0.0005251380   0.0001523466
   0.0004563108   0.0004860087  -0.0001676249
   0.0008690093   0.0004094742  -0.0002321276
   0.0004491949   0.0004183251  -0.0004968086
   0.0004532581   0.0002435985  -0.0003543777
   0.0007606146   0.0006347894  -0.0003283283
   0.0009499808   0.0002707738  -0.0002025943
   0.0005284103   0.0002372677  -0.0003558333
  -0.0007868136   0.0001792962   0.0001047747
  -0.0003766089   0.0000621432  -0.0000900348
  -0.0003501144   0.0001680046  -0.0001543139
  -0.0009514363   0.0001814353   0.0000774763
  -0.0009264581   0.0002715551  -0.0000058548
  -0.0002539035   0.0001166021  -0.0001961891
  -0.0003276447   0.0000678778  -0.0001306010
  -0.0007971918   0.0001631498   0.0002300028
   0.0002634593  -0.0002783909  -0.0003810189
   0.0004998512  -0.0000475364  -0.0005321037
   0.0005530322  -0.0000940128  -0.0004622813
   0.0001911481  -0.0001772652  -0.0002838750
  -0.0001795888  -0.0003415117  -0.0003649688
   0.0007353626  -0.0002434422  -0.0003725159
   0.0005225448   0.0000224813  -0.0006104063
   0.0001279802   0.0000907150  -0.0004985582
   0.0001725443   0.0005646556   0.0000004238
   0.0003899563   0.0005397460  -0.0006541764
   0.0000542909   0.0003102555  -0.0010313293
   0.0001796614   0.0004502953   0.0002241496
   0.0004608638   0.0001480706   0.0006850182
   0.0003965583   0.0003073163  -0.0001014141
   0.0003404244   0.0004240429  -0.0004762346
   0.0002325852   0.0004716127   0.0004183030
   0.0002654588   0.0003802061   0.0011178785
   0.0002486075   0.0001993835   0.0006225459
   0.0002668620  -0.0000110572   0.0002966973
   0.0005685029  -0.0001411417   0.0014624896
   0.0003161196   0.0000236037   0.0018919898
   0.0002654280   0.0001249492   0.0012116590
   0.0004229328   0.0002075759   0.0007722565
   0.0002763355   0.0001013162   0.0018859922
  -0.0013183392   0.0001662300  -0.0002148713
  -0.0008351332  -0.0001616168   0.0000282571
  -0.0006262838   0.0001493264   0.0001196726
  -0.0012446245   0.0000767640  -0.0003547143
  -0.0013843516   0.0001029186  -0.0003072391
  -0.0009594546   0.0000977060  -0.0001330029
  -0.0008084658   0.0000337150  -0.0000711278
  -0.0013026574   0.0000612549  -0.0001859887
   0.0003206118  -0.0003094618   0.0006735218
   0.0007815381   0.0000663926   0.0004412271
   0.0004828015   0.0001505757   0.0001345848
   0.0004148711   0.0000666638   0.0004978321
   0.0003542449   0.0000160897   0.0004354771
   0.0007471488   0.0001976887   0.0003855395
   0.0008054033  -0.0001092359   0.0004229870
   0.0003665510  -0.0000598865   0.0005575325
   0.0003367460  -0.0005676921  -0.0001950485
   0.0003628008  -0.0005396700   0.0001672907
   0.0001651295  -0.0002788556   0.0005653752
   0.0004444779  -0.0009219528   0.0000500605
   0.0004528563  -0.0007902327   0.0000358525
   0.0003279787  -0.0006777369   0.0002708677
   0.0002013505  -0.0004333167   0.0003297959
   0.0003486405  -0.0006783194   0.0000422752
  -0.0003282730  -0.0002422358  -0.0004969191
  -0.0002532488  -0.0003526234   0.0002864719
  -0.0004059890  -0.0003868929   0.0005378459
  -0.0002479068  -0.0002467915  -0.0007954757
  -0.0002638854  -0.0005507961  -0.0013968004
  -0.0004072235  -0.0003136379  -0.0007719051
  -0.0002139801  -0.0002727314  -0.0002352541
  -0.0001552203  -0.0004576272  -0.0014757106
  -0.0005155789   0.0000701312   0.0005495521
   0.0001245739   0.0007913292   0.0003483024
  -0.0001648435   0.0006229243   0.0001692174
  -0.0002145239   0.0002950452   0.0006436303
  -0.0002483082   0.0002891497   0.0005329131
  -0.0000806479   0.0007263490   0.0002735931
  -0.0001207094   0.0008180532   0.0001888954
  -0.0002813594   0.0003730791   0.0004969340
  -0.0006343507  -0.0004047148  -0.0002809613
  -0.0003985857  -0.0008305256  -0.0000614864
  -0.0002825818  -0.0009116766   0.0000723974
  -0.0006835115  -0.0004201206  -0.0003413744
  -0.0005502390  -0.0003545668  -0.0005506219
  -0.0005324310  -0.0008068105  -0.0000247412
  -0.0003459886  -0.0007568325  -0.0000526642
  -0.0007217204  -0.0003621383  -0.0004331115
   0.0005330499   0.0003104703  -0.0002802742
   0.0000469577  -0.0002127675  -0.0005280239
   0.0000178991  -0.0000452463  -0.0004605376
   0.0002879301   0.0002612892  -0.0004386172
   0.0003499416   0.0001886253  -0.0004417182
  -0.0000623425   0.0000922676  -0.0006684788
   0.0002082459  -0.0003220532  -0.0004008834
   0.0002028176   0.0002874172  -0.0003307834

1
  -0.0066865295  -0.0038771599  -0.0184460824
  -0.0011613794   0.0000872513  -0.0004090095
  -0.0000454885   0.0009691287  -0.0000531050
  -0.0002120528   0.0003628249  -0.0005654962
   0.0006197462   0.0004065349  -0.0003326808
   0.0001113447   0.0006181040  -0.0004746358
  -0.0000750067   0.0006827072  -0.0003868714
  -0.0000643884   0.0007013774  -0.0003755371
  -0.0000237605   0.0006298220  -0.0005504611
   0.0000418796   0.0002209598  -0.0002477530
   0.0002979995   0.0000455583  -0.0004758189
   0.0001572048   0.0000004976  -0.0004004491
   0.0001535765   0.0001010290  -0.0003208336
   0.0003196156   0.0003471680  -0.0002257015
   0.0003678136  -0.0000309637  -0.0005442172
   0.0000740264  -0.0001229757  -0.0004868666
  -0.0000516107   0.0002171250  -0.0002201776
   0.0001801657  -0.0003472534  -0.0000086977
   0.0002649285  -0.0000282012  -0.0002235786
   0.0002540035  -0.0000632857  -0.0003095562
   0.0000981882  -0.0001104258  -0.0002987613
   0.0003837946  -0.0003452839  -0.0000879221
  -0.0001910013  -0.0000397000  -0.0002303837
   0.0001182236   0.0001608229  -0.0005846205
  -0.0000650763  -0.0000974785  -0.0000633500
  -0.0001334692   0.0000736225  -0.0007804055
  -0.0000550043   0.0000849966  -0.0004953218
   0.0000907821   0.0002053718  -0.0005322505
  -0.0001563561   0.0001850647  -0.0010116358
   0.0001866380   0.0000871388  -0.0001175327
  -0.0002674342   0.0004251520  -0.0008555726
   0.0000150032   0.0000033666  -0.0007129824
  -0.0001347334   0.0004410415  -0.0009617307
  -0.0000767452  -0.0002836164   0.0001174301
   0.0000162427  -0.0005942622   0.0005551846
  -0.0000631907  -0.0002807988   0.0006693254
   0.0002505398  -0.0006284295   0.0003353991
  -0.0002709595  -0.0005444429   0.0003715615
   0.0000994668  -0.0005653800   0.0000286108
   0.0000185787  -0.0007003275   0.0002921196
   0.0000308819  -0.0007775186   0.0001245348
  -0.0008302341   0.0001904004  -0.0003836389
  -0.0003830435   0.0005798666  -0.0001619619
  -0.0008604499   0.0003725073  -0.0003182259
  -0.0007848707   0.0005288673  -0.0000296516
  -0.0007752930   0.0004432886  -0.0002953434
  -0.0006583965   0.0004299271  -0.0003064972
  -0.0006747712   0.0005197496  -0.0003420385
  -0.0008304481   0.0005359483  -0.0004147104
   0.0005875348  -0.0001551318   0.0013850014
   0.0001692175  -0.0000119126   0.0010891609
   0.0002196108   0.0003020895   0.0007289211
   0.0004741299  -0.0000855030   0.0013622298
   0.0004077956  -0.0001278890   0.0013172877
   0.0005512931   0.0000248820   0.0012299917
   0.0004534721   0.0001279005   0.0010522408
   0.0003926797  -0.0000991338   0.0011050175
   0.0010062833  -0.0013530776  -0.0003510963
   0.0008626940  -0.0006757351   0.0000669955
   0.0011085332  -0.0003786449  -0.0000767825
   0.0010035309  -0.0007428529  -0.0000057755
   0.0010328398  -0.0006977140  -0.0000068182
   0.0007835845  -0.0006768277   0.0000041753
   0.0008639450  -0.0007176441   0.0000097296
   0.0010112927  -0.0007682411  -0.0000214657
  -0.0003014925   0.0000012009   0.0006746602
  -0.0002118565  -0.0001640768   0.0005384946
  -0.0001618668  -0.0001822570   0.0008901106
  -0.0001788351  -0.0002391303   0.0013217388
  -0.0002485361  -0.0003218013   0.0007193662
  -0.0000501387  -0.0002361581   0.0019279128
  -0.0000874095  -0.0000560765   0.0015263279
  -0.0002548159  -0.0000392357   0.0012039237
  -0.0000840968   0.0009331653   0.0004003206
  -0.0003118315   0.0004942031   0.0002773853
  -0.0004639626   0.0009400686   0.0000336801
  -0.0002861732   0.0002197782   0.0004691962
  -0.0004056772   0.0005591110   0.0004129498
  -0.0004780273   0.0006969967   0.0002819534
  -0.0002657254   0.0007106927   0.0001940645
  -0.0003927894   0.0006241854   0.0003848659
  -0.0007446776  -0.0006065955  -0.0004696993
  -0.0008023088  -0.0008577246  -0.0003792996
  -0.0008979741  -0.0007381602  -0.0004819225
  -0.0006696965  -0.0006874721  -0.0004300534
  -0.0009092533  -0.0005378666  -0.0003014873
  -0.0002225007  -0.0007588074  -0.0004370854
  -0.0007355720  -0.0008807302  -0.0003634479
  -0.0007765667  -0.0006422967  -0.0006376694
   0.0004080066   0.0004092370  -0.0005183518
   0.0004796241   0.0003992501  -0.0003400156
   0.0003742223   0.0002471292  -0.0004012249
   0.0005288366   0.0004214982  -0.0004366681
   0.0006275947   0.0003855147  -0.0005123587
   0.0003230209   0.0000432423  -0.0005790936
   0.0005302044   0.0002320448  -0.0003674051
   0.0004363552   0.0005696336  -0.0003881613

9
  0.0200000000  0.0000000000  0.0000000000
   0.0005667464   0.0001328973  -0.0002413271
   0.0001800408   0.0000781938  -0.0001221691
   0.0002896444   0.0002212167  -0.0003019185
   0.0000577185   0.0001885593  -0.0001317315
   0.0004620436  -0.0000042183  -0.0000355750
   0.0005570308   0.0000717473  -0.0001083169
   0.0004707596   0.0000146345  -0.0001237242
   0.0009057458   0.0002913058  -0.0002715920
  -0.0004475281   0.0002746622  -0.0002135126
  -0.0009880246   0.0000466316  -0.0001795380
  -0.0010174429   0.0002795233   0.0000856031
  -0.0010537667   0.0000728137  -0.0000330938
  -0.0011081839  -0.0000040412   0.0001866160
  -0.0010408936   0.0000700868   0.0000947268
  -0.0009862889   0.0000592991   0.0001418200
  -0.0010735971   0.0001045521   0.0001341832
   0.0001159842  -0.0002357027  -0.0004695770
   0.0003818703  -0.0001846194  -0.0008362782
   0.0002027924  -0.0004842276  -0.0006652777
   0.0002417452   0.0003413787  -0.0011320598
   0.0002574257  -0.0003364675  -0.0008395925
   0.0003767364  -0.0000572822  -0.0008747426
   0.0000834745  -0.0000696380  -0.0009558233
   0.0003306467  -0.0000798133  -0.0009718420
   0.0001527022   0.0003281489  -0.0014299505
   0.0004442437   0.0001254599  -0.0016572360
   0.0001717040   0.0000402704  -0.0005386750
   0.0002238849   0.0004274977  -0.0014807821
   0.0003027856   0.0003882109  -0.0013583593
   0.0003386780   0.0004907906  -0.0014282878
   0.0003321626   0.0005148356  -0.0015394467
   0.0003687657   0.0004495487  -0.0008898878
   0.0005811143   0.0000969799   0.0003947737
   0.0006901319   0.0000631402   0.0000331146
   0.0004217841   0.0001468475   0.0015601120
   0.0003759952   0.0000473384   0.0005516780
   0.0003186123   0.0001637104   0.0006879692
   0.0002963208  -0.0000169901   0.0004121780
   0.0002469573  -0.0001243672   0.0006766822
   0.0003069655   0.0001101484   0.0012597056
  -0.0004554201  -0.0000579010   0.0002382936
  -0.0005667843  -0.0000644411   0.0000311868
  -0.0006987013  -0.0001339980   0.0000581395
  -0.0003848776  -0.0000462778   0.0001127582
  -0.0006748348   0.0000236484   0.0000669460
  -0.0004369883  -0.0001080260   0.0001341953
  -0.0005077381  -0.0000928150   0.0001245768
  -0.0003480867   0.0000592901   0.0000840493
   0.0003800122  -0.0000764319   0.0008584871
   0.0003747156  -0.0001234283   0.0008606493
   0.0004462660  -0.0002557985   0.0006547607
   0.0005450610   0.0002553359   0.0004307886
  -0.0000493437  -0.0002490559   0.0010799677
   0.0005688658   0.0001266369   0.0005281090
   0.0001801438  -0.0002340855   0.0005512083
   0.0007422869   0.0005850421   0.0001291172
   0.0000702528  -0.0001535716   0.0003133417
   0.0000030352  -0.0000772674   0.0002221977
   0.0001273093  -0.0002271766   0.0002331549
  -0.0001203345  -0.0000312768   0.0003308251
   0.0001792211   0.0000584042   0.0002047645
  -0.0000143432  -0.0002017906   0.0003288287
   0.0001232366  -0.0001976446   0.0003659864
   0.0000229535  -0.0002968035   0.0003541980
  -0.0004743019  -0.0002523542   0.0004931420
  -0.0004668398  -0.0000169145   0.0018599278
  -0.0004228471   0.0001221237  -0.0008603566
  -0.0003244198  -0.0002260316   0.0001636673