phonopy:
  version: "2.38.1"
  calculator: qe
  frequency_unit_conversion_factor: 108.970772
  symmetry_tolerance: 1.00000e-05
  configuration:
    band: "1/2 1/2 1/2 0 0 0 1/2 0 1/2"

physical_unit:
  atomic_mass: "AMU"
  length: "au"
  force: "Ry/au"
  force_constants: "Ry/au^2"

space_group:
  type: "P1"
  number: 1
  Hall_symbol: "P 1"

primitive_matrix:
- [  0.000000000000000,  1.000000000000000,  0.000000000000000 ]
- [  1.000000000000000,  0.000000000000000,  1.000000000000000 ]
- [  0.000000000000000,  0.000000000000000, -1.000000000000000 ]

supercell_matrix:
- [   2,   0,   0 ]
- [   0,   2,   0 ]
- [   0,   0,   2 ]

primitive_cell:
  lattice:
  - [     5.033288152314657,     8.728149542234707,     0.000000000000000 ] # a
  - [    10.076648471008609,     0.000000000000000,     0.000000000000000 ] # b
  - [     0.003092973533652,     5.811409103143821,   -13.876764382051201 ] # c
  points:
  - symbol: Ca # 1
    coordinates: [  0.541675567626953,  0.696480095386505,  0.854565799236298 ]
    mass: 40.078000
  - symbol: O # 2
    coordinates: [  0.741462647914886,  0.806160271167755,  0.057227909564972 ]
    mass: 15.999400
  - symbol: Mg # 3
    coordinates: [  0.056149184703827,  0.439255326986313,  0.083121955394745 ]
    mass: 24.305000
  - symbol: Si # 4
    coordinates: [  0.691468358039856,  0.121506735682487,  0.130127668380737 ]
    mass: 28.085500
  - symbol: Si # 5
    coordinates: [  0.391373097896576,  0.271087646484375,  0.577975869178772 ]
    mass: 28.085500
  - symbol: O # 6
    coordinates: [  0.341613203287125,  0.005558960605413,  0.651733428239822 ]
    mass: 15.999400
  - symbol: Mg # 7
    coordinates: [  0.026951640844345,  0.953310132026672,  0.625451833009720 ]
    mass: 24.305000
  - symbol: O # 8
    coordinates: [  0.052784115076065,  0.586789786815643,  0.651770919561386 ]
    mass: 15.999400
  - symbol: O # 9
    coordinates: [  0.541569769382477,  0.196611464023590,  0.354160010814667 ]
    mass: 15.999400
  - symbol: O # 10
    coordinates: [  0.633310645818710,  0.293325036764145,  0.652160316705704 ]
    mass: 15.999400
  - symbol: O # 11
    coordinates: [  0.449254930019379,  0.386275798082352,  0.056735277175903 ]
    mass: 15.999400
  - symbol: O # 12
    coordinates: [  0.029707029461860,  0.099197477102280,  0.056826710700989 ]
    mass: 15.999400
  reciprocal_lattice: # without 2pi
  - [     0.000000000000000,     0.114571822487813,     0.047981194595381 ] # a*
  - [     0.099239345589666,    -0.057228650813427,    -0.023944498045824 ] # b*
  - [     0.000000000000000,     0.000000000000000,    -0.072062908360211 ] # c*

unit_cell:
  lattice:
  - [    10.076648471008609,     0.000000000000000,     0.000000000000000 ] # a
  - [     5.033288152314657,     8.728149542234707,     0.000000000000000 ] # b
  - [     5.030195178781004,     2.916740439090886,    13.876764382051201 ] # c
  points:
  - symbol: Ca # 1
    coordinates: [  0.696480095386505,  0.396241366863251,  0.145434200763702 ]
    mass: 40.078000
    reduced_to: 1
  - symbol: O # 2
    coordinates: [  0.806160271167755,  0.798690557479858,  0.942772090435028 ]
    mass: 15.999400
    reduced_to: 2
  - symbol: Mg # 3
    coordinates: [  0.439255326986313,  0.139271140098572,  0.916878044605255 ]
    mass: 24.305000
    reduced_to: 3
  - symbol: Si # 4
    coordinates: [  0.121506735682487,  0.821596026420593,  0.869872331619263 ]
    mass: 28.085500
    reduced_to: 4
  - symbol: Si # 5
    coordinates: [  0.271087646484375,  0.969348967075348,  0.422024130821228 ]
    mass: 28.085500
    reduced_to: 5
  - symbol: O # 6
    coordinates: [  0.005558960605413,  0.993346631526947,  0.348266571760178 ]
    mass: 15.999400
    reduced_to: 6
  - symbol: Mg # 7
    coordinates: [  0.953310132026672,  0.652403473854065,  0.374548166990280 ]
    mass: 24.305000
    reduced_to: 7
  - symbol: O # 8
    coordinates: [  0.586789786815643,  0.704555034637451,  0.348229080438614 ]
    mass: 15.999400
    reduced_to: 8
  - symbol: O # 9
    coordinates: [  0.196611464023590,  0.895729780197144,  0.645839989185333 ]
    mass: 15.999400
    reduced_to: 9
  - symbol: O # 10
    coordinates: [  0.293325036764145,  0.285470962524414,  0.347839683294296 ]
    mass: 15.999400
    reduced_to: 10
  - symbol: O # 11
    coordinates: [  0.386275798082352,  0.505990207195282,  0.943264722824097 ]
    mass: 15.999400
    reduced_to: 11
  - symbol: O # 12
    coordinates: [  0.099197477102280,  0.086533740162849,  0.943173289299011 ]
    mass: 15.999400
    reduced_to: 12

supercell:
  lattice:
  - [    20.153296942017217,     0.000000000000000,     0.000000000000000 ] # a
  - [    10.066576304629313,    17.456299084469414,     0.000000000000000 ] # b
  - [    10.060390357562008,     5.833480878181772,    27.753528764102402 ] # c
  points:
  - symbol: Ca # 1
    coordinates: [  0.348240047693253,  0.198120683431626,  0.072717100381851 ]
    mass: 40.078000
    reduced_to: 1
  - symbol: Ca # 2
    coordinates: [  0.848240047693253,  0.198120683431626,  0.072717100381851 ]
    mass: 40.078000
    reduced_to: 1
  - symbol: Ca # 3
    coordinates: [  0.348240047693253,  0.698120683431625,  0.072717100381851 ]
    mass: 40.078000
    reduced_to: 1
  - symbol: Ca # 4
    coordinates: [  0.848240047693253,  0.698120683431625,  0.072717100381851 ]
    mass: 40.078000
    reduced_to: 1
  - symbol: Ca # 5
    coordinates: [  0.348240047693253,  0.198120683431626,  0.572717100381851 ]
    mass: 40.078000
    reduced_to: 1
  - symbol: Ca # 6
    coordinates: [  0.848240047693253,  0.198120683431626,  0.572717100381851 ]
    mass: 40.078000
    reduced_to: 1
  - symbol: Ca # 7
    coordinates: [  0.348240047693253,  0.698120683431625,  0.572717100381851 ]
    mass: 40.078000
    reduced_to: 1
  - symbol: Ca # 8
    coordinates: [  0.848240047693253,  0.698120683431625,  0.572717100381851 ]
    mass: 40.078000
    reduced_to: 1
  - symbol: O # 9
    coordinates: [  0.403080135583878,  0.399345278739929,  0.471386045217514 ]
    mass: 15.999400
    reduced_to: 9
  - symbol: O # 10
    coordinates: [  0.903080135583878,  0.399345278739929,  0.471386045217514 ]
    mass: 15.999400
    reduced_to: 9
  - symbol: O # 11
    coordinates: [  0.403080135583878,  0.899345278739929,  0.471386045217514 ]
    mass: 15.999400
    reduced_to: 9
  - symbol: O # 12
    coordinates: [  0.903080135583878,  0.899345278739929,  0.471386045217514 ]
    mass: 15.999400
    reduced_to: 9
  - symbol: O # 13
    coordinates: [  0.403080135583878,  0.399345278739929,  0.971386045217514 ]
    mass: 15.999400
    reduced_to: 9
  - symbol: O # 14
    coordinates: [  0.903080135583878,  0.399345278739929,  0.971386045217514 ]
    mass: 15.999400
    reduced_to: 9
  - symbol: O # 15
    coordinates: [  0.403080135583878,  0.899345278739929,  0.971386045217514 ]
    mass: 15.999400
    reduced_to: 9
  - symbol: O # 16
    coordinates: [  0.903080135583878,  0.899345278739929,  0.971386045217514 ]
    mass: 15.999400
    reduced_to: 9
  - symbol: Mg # 17
    coordinates: [  0.219627663493156,  0.069635570049286,  0.458439022302628 ]
    mass: 24.305000
    reduced_to: 17
  - symbol: Mg # 18
    coordinates: [  0.719627663493156,  0.069635570049286,  0.458439022302628 ]
    mass: 24.305000
    reduced_to: 17
  - symbol: Mg # 19
    coordinates: [  0.219627663493156,  0.569635570049286,  0.458439022302628 ]
    mass: 24.305000
    reduced_to: 17
  - symbol: Mg # 20
    coordinates: [  0.719627663493156,  0.569635570049286,  0.458439022302628 ]
    mass: 24.305000
    reduced_to: 17
  - symbol: Mg # 21
    coordinates: [  0.219627663493156,  0.069635570049286,  0.958439022302628 ]
    mass: 24.305000
    reduced_to: 17
  - symbol: Mg # 22
    coordinates: [  0.719627663493156,  0.069635570049286,  0.958439022302628 ]
    mass: 24.305000
    reduced_to: 17
  - symbol: Mg # 23
    coordinates: [  0.219627663493156,  0.569635570049286,  0.958439022302628 ]
    mass: 24.305000
    reduced_to: 17
  - symbol: Mg # 24
    coordinates: [  0.719627663493156,  0.569635570049286,  0.958439022302628 ]
    mass: 24.305000
    reduced_to: 17
  - symbol: Si # 25
    coordinates: [  0.060753367841244,  0.410798013210297,  0.434936165809632 ]
    mass: 28.085500
    reduced_to: 25
  - symbol: Si # 26
    coordinates: [  0.560753367841244,  0.410798013210297,  0.434936165809632 ]
    mass: 28.085500
    reduced_to: 25
  - symbol: Si # 27
    coordinates: [  0.060753367841244,  0.910798013210297,  0.434936165809632 ]
    mass: 28.085500
    reduced_to: 25
  - symbol: Si # 28
    coordinates: [  0.560753367841244,  0.910798013210297,  0.434936165809632 ]
    mass: 28.085500
    reduced_to: 25
  - symbol: Si # 29
    coordinates: [  0.060753367841244,  0.410798013210297,  0.934936165809632 ]
    mass: 28.085500
    reduced_to: 25
  - symbol: Si # 30
    coordinates: [  0.560753367841244,  0.410798013210297,  0.934936165809632 ]
    mass: 28.085500
    reduced_to: 25
  - symbol: Si # 31
    coordinates: [  0.060753367841244,  0.910798013210297,  0.934936165809632 ]
    mass: 28.085500
    reduced_to: 25
  - symbol: Si # 32
    coordinates: [  0.560753367841244,  0.910798013210297,  0.934936165809632 ]
    mass: 28.085500
    reduced_to: 25
  - symbol: Si # 33
    coordinates: [  0.135543823242188,  0.484674483537674,  0.211012065410614 ]
    mass: 28.085500
    reduced_to: 33
  - symbol: Si # 34
    coordinates: [  0.635543823242188,  0.484674483537674,  0.211012065410614 ]
    mass: 28.085500
    reduced_to: 33
  - symbol: Si # 35
    coordinates: [  0.135543823242188,  0.984674483537674,  0.211012065410614 ]
    mass: 28.085500
    reduced_to: 33
  - symbol: Si # 36
    coordinates: [  0.635543823242188,  0.984674483537674,  0.211012065410614 ]
    mass: 28.085500
    reduced_to: 33
  - symbol: Si # 37
    coordinates: [  0.135543823242188,  0.484674483537674,  0.711012065410614 ]
    mass: 28.085500
    reduced_to: 33
  - symbol: Si # 38
    coordinates: [  0.635543823242188,  0.484674483537674,  0.711012065410614 ]
    mass: 28.085500
    reduced_to: 33
  - symbol: Si # 39
    coordinates: [  0.135543823242188,  0.984674483537674,  0.711012065410614 ]
    mass: 28.085500
    reduced_to: 33
  - symbol: Si # 40
    coordinates: [  0.635543823242188,  0.984674483537674,  0.711012065410614 ]
    mass: 28.085500
    reduced_to: 33
  - symbol: O # 41
    coordinates: [  0.002779480302707,  0.496673315763474,  0.174133285880089 ]
    mass: 15.999400
    reduced_to: 41
  - symbol: O # 42
    coordinates: [  0.502779480302706,  0.496673315763474,  0.174133285880089 ]
    mass: 15.999400
    reduced_to: 41
  - symbol: O # 43
    coordinates: [  0.002779480302707,  0.996673315763474,  0.174133285880089 ]
    mass: 15.999400
    reduced_to: 41
  - symbol: O # 44
    coordinates: [  0.502779480302706,  0.996673315763474,  0.174133285880089 ]
    mass: 15.999400
    reduced_to: 41
  - symbol: O # 45
    coordinates: [  0.002779480302707,  0.496673315763474,  0.674133285880089 ]
    mass: 15.999400
    reduced_to: 41
  - symbol: O # 46
    coordinates: [  0.502779480302706,  0.496673315763474,  0.674133285880089 ]
    mass: 15.999400
    reduced_to: 41
  - symbol: O # 47
    coordinates: [  0.002779480302707,  0.996673315763474,  0.674133285880089 ]
    mass: 15.999400
    reduced_to: 41
  - symbol: O # 48
    coordinates: [  0.502779480302706,  0.996673315763474,  0.674133285880089 ]
    mass: 15.999400
    reduced_to: 41
  - symbol: Mg # 49
    coordinates: [  0.476655066013336,  0.326201736927033,  0.187274083495140 ]
    mass: 24.305000
    reduced_to: 49
  - symbol: Mg # 50
    coordinates: [  0.976655066013336,  0.326201736927033,  0.187274083495140 ]
    mass: 24.305000
    reduced_to: 49
  - symbol: Mg # 51
    coordinates: [  0.476655066013336,  0.826201736927032,  0.187274083495140 ]
    mass: 24.305000
    reduced_to: 49
  - symbol: Mg # 52
    coordinates: [  0.976655066013336,  0.826201736927032,  0.187274083495140 ]
    mass: 24.305000
    reduced_to: 49
  - symbol: Mg # 53
    coordinates: [  0.476655066013336,  0.326201736927033,  0.687274083495140 ]
    mass: 24.305000
    reduced_to: 49
  - symbol: Mg # 54
    coordinates: [  0.976655066013336,  0.326201736927033,  0.687274083495140 ]
    mass: 24.305000
    reduced_to: 49
  - symbol: Mg # 55
    coordinates: [  0.476655066013336,  0.826201736927032,  0.687274083495140 ]
    mass: 24.305000
    reduced_to: 49
  - symbol: Mg # 56
    coordinates: [  0.976655066013336,  0.826201736927032,  0.687274083495140 ]
    mass: 24.305000
    reduced_to: 49
  - symbol: O # 57
    coordinates: [  0.293394893407821,  0.352277517318725,  0.174114540219307 ]
    mass: 15.999400
    reduced_to: 57
  - symbol: O # 58
    coordinates: [  0.793394893407821,  0.352277517318725,  0.174114540219307 ]
    mass: 15.999400
    reduced_to: 57
  - symbol: O # 59
    coordinates: [  0.293394893407821,  0.852277517318725,  0.174114540219307 ]
    mass: 15.999400
    reduced_to: 57
  - symbol: O # 60
    coordinates: [  0.793394893407821,  0.852277517318725,  0.174114540219307 ]
    mass: 15.999400
    reduced_to: 57
  - symbol: O # 61
    coordinates: [  0.293394893407821,  0.352277517318725,  0.674114540219307 ]
    mass: 15.999400
    reduced_to: 57
  - symbol: O # 62
    coordinates: [  0.793394893407821,  0.352277517318725,  0.674114540219307 ]
    mass: 15.999400
    reduced_to: 57
  - symbol: O # 63
    coordinates: [  0.293394893407821,  0.852277517318725,  0.674114540219307 ]
    mass: 15.999400
    reduced_to: 57
  - symbol: O # 64
    coordinates: [  0.793394893407821,  0.852277517318725,  0.674114540219307 ]
    mass: 15.999400
    reduced_to: 57
  - symbol: O # 65
    coordinates: [  0.098305732011795,  0.447864890098572,  0.322919994592667 ]
    mass: 15.999400
    reduced_to: 65
  - symbol: O # 66
    coordinates: [  0.598305732011795,  0.447864890098572,  0.322919994592667 ]
    mass: 15.999400
    reduced_to: 65
  - symbol: O # 67
    coordinates: [  0.098305732011795,  0.947864890098572,  0.322919994592667 ]
    mass: 15.999400
    reduced_to: 65
  - symbol: O # 68
    coordinates: [  0.598305732011795,  0.947864890098572,  0.322919994592667 ]
    mass: 15.999400
    reduced_to: 65
  - symbol: O # 69
    coordinates: [  0.098305732011795,  0.447864890098572,  0.822919994592667 ]
    mass: 15.999400
    reduced_to: 65
  - symbol: O # 70
    coordinates: [  0.598305732011795,  0.447864890098572,  0.822919994592667 ]
    mass: 15.999400
    reduced_to: 65
  - symbol: O # 71
    coordinates: [  0.098305732011795,  0.947864890098572,  0.822919994592667 ]
    mass: 15.999400
    reduced_to: 65
  - symbol: O # 72
    coordinates: [  0.598305732011795,  0.947864890098572,  0.822919994592667 ]
    mass: 15.999400
    reduced_to: 65
  - symbol: O # 73
    coordinates: [  0.146662518382073,  0.142735481262207,  0.173919841647148 ]
    mass: 15.999400
    reduced_to: 73
  - symbol: O # 74
    coordinates: [  0.646662518382072,  0.142735481262207,  0.173919841647148 ]
    mass: 15.999400
    reduced_to: 73
  - symbol: O # 75
    coordinates: [  0.146662518382073,  0.642735481262207,  0.173919841647148 ]
    mass: 15.999400
    reduced_to: 73
  - symbol: O # 76
    coordinates: [  0.646662518382072,  0.642735481262207,  0.173919841647148 ]
    mass: 15.999400
    reduced_to: 73
  - symbol: O # 77
    coordinates: [  0.146662518382073,  0.142735481262207,  0.673919841647148 ]
    mass: 15.999400
    reduced_to: 73
  - symbol: O # 78
    coordinates: [  0.646662518382072,  0.142735481262207,  0.673919841647148 ]
    mass: 15.999400
    reduced_to: 73
  - symbol: O # 79
    coordinates: [  0.146662518382073,  0.642735481262207,  0.673919841647148 ]
    mass: 15.999400
    reduced_to: 73
  - symbol: O # 80
    coordinates: [  0.646662518382072,  0.642735481262207,  0.673919841647148 ]
    mass: 15.999400
    reduced_to: 73
  - symbol: O # 81
    coordinates: [  0.193137899041176,  0.252995103597641,  0.471632361412049 ]
    mass: 15.999400
    reduced_to: 81
  - symbol: O # 82
    coordinates: [  0.693137899041176,  0.252995103597641,  0.471632361412049 ]
    mass: 15.999400
    reduced_to: 81
  - symbol: O # 83
    coordinates: [  0.193137899041176,  0.752995103597641,  0.471632361412049 ]
    mass: 15.999400
    reduced_to: 81
  - symbol: O # 84
    coordinates: [  0.693137899041176,  0.752995103597641,  0.471632361412049 ]
    mass: 15.999400
    reduced_to: 81
  - symbol: O # 85
    coordinates: [  0.193137899041176,  0.252995103597641,  0.971632361412049 ]
    mass: 15.999400
    reduced_to: 81
  - symbol: O # 86
    coordinates: [  0.693137899041176,  0.252995103597641,  0.971632361412049 ]
    mass: 15.999400
    reduced_to: 81
  - symbol: O # 87
    coordinates: [  0.193137899041176,  0.752995103597641,  0.971632361412049 ]
    mass: 15.999400
    reduced_to: 81
  - symbol: O # 88
    coordinates: [  0.693137899041176,  0.752995103597641,  0.971632361412049 ]
    mass: 15.999400
    reduced_to: 81
  - symbol: O # 89
    coordinates: [  0.049598738551140,  0.043266870081424,  0.471586644649506 ]
    mass: 15.999400
    reduced_to: 89
  - symbol: O # 90
    coordinates: [  0.549598738551140,  0.043266870081424,  0.471586644649506 ]
    mass: 15.999400
    reduced_to: 89
  - symbol: O # 91
    coordinates: [  0.049598738551140,  0.543266870081424,  0.471586644649506 ]
    mass: 15.999400
    reduced_to: 89
  - symbol: O # 92
    coordinates: [  0.549598738551140,  0.543266870081424,  0.471586644649506 ]
    mass: 15.999400
    reduced_to: 89
  - symbol: O # 93
    coordinates: [  0.049598738551140,  0.043266870081424,  0.971586644649506 ]
    mass: 15.999400
    reduced_to: 89
  - symbol: O # 94
    coordinates: [  0.549598738551140,  0.043266870081424,  0.971586644649506 ]
    mass: 15.999400
    reduced_to: 89
  - symbol: O # 95
    coordinates: [  0.049598738551140,  0.543266870081424,  0.971586644649506 ]
    mass: 15.999400
    reduced_to: 89
  - symbol: O # 96
    coordinates: [  0.549598738551140,  0.543266870081424,  0.971586644649506 ]
    mass: 15.999400
    reduced_to: 89
